48
Lattice="8.9846 0.0 0.0 0.0 7.7808 0.0 0.0 0.0 7.3358" Properties=species:S:1:pos:R:3:forces:R:3 starting-structure=0 energy=-233.54750061035156 id=39a8fc1b-9403-4653-967f-8eeb8eeaec47 level=0 parent relax_steps=0 pbc="T T T"
H        2.98231949       7.33679906       0.61253856       1.40358901      -1.09555733      -0.51153737
H        2.30405641       0.91717985       0.55248048      -0.48003459      -0.63062549       0.55394644
H        3.05316080       3.00731306       0.19651022      -1.29762363      -0.40566009       1.32761073
H        2.32287521       2.63432342       6.29567940      -1.73008847      -0.72008628       2.80562735
H        2.20593972       7.74365535       2.65663202      -0.27175209      -0.05586987      -0.65106106
H        1.32326551       7.30416172       4.01580607       2.15166569       0.75979936      -1.38189602
H        1.59948039       3.06432575       4.23767580      -5.10977650       2.92196035      -2.36298084
H        2.24069383       1.64506942       4.29264734      -0.19957799       0.79537106      -0.13888979
H        7.54628327       7.27293847       0.54146003      -2.48098469       1.60892987       1.38443303
H        6.71641927       0.91607441       0.60161815       0.04115757       0.20105600      -0.05154371
H        6.75660386       2.61638717       6.28454393       0.01215920      -0.27526653       2.52237868
H        7.59512455       3.18112757       0.37981384      -2.56232452      -2.15992022      -1.13520908
H        6.73363518       0.05077359       2.63380431       0.18026462      -0.13806283       2.82704091
H        5.83561869       7.34535450       3.94972970       2.12261820       0.90531653      -0.13885692
H        5.88613237       3.03184910       4.19863083       1.96094787      -1.08500528       1.15888298
H        6.75293069       1.68003325       4.30500990      -0.02113573      -1.38087356      -0.41790885
H        0.05381971       3.92100403       1.88049829      -0.00311321      -0.01536373       3.71247649
H        0.79890554       3.35199549       0.63579760      -2.00131893       1.72903037       0.56182140
H        0.76259810       6.92934897       0.38414702       0.61867195       0.03944856       0.33969980
H        8.93250103       5.58861421       0.34024056       0.20300123      -2.37681007       1.14024603
H        8.15728381       3.42006236       4.03343428       1.71054852       1.60674953      -0.28007156
H        0.03298913       4.88925645       4.00972615      -0.53192896      -0.49548900       0.20695162
H        0.11630773       6.44545038       5.53918935      -0.34729639       0.06105801      -0.20664394
H        8.15759214       6.88303197       4.31408017       0.44942093      -0.00963056       0.15282214
H        4.57408955       3.87583993       1.87793934      -0.14930782      -0.12749867       0.66879439
H        5.23910826       3.38252681       0.62491655       3.44959760      -2.09142590      -1.38258636
H        5.25042975       6.92484457       0.33962795      -0.86433625       0.25821030      -0.45772111
H        4.54381684       5.57218742       0.32935784      -0.83979273       1.51681161      -0.80920088
H        3.80099677       3.45455057       3.99247556      -3.88440704      -2.19268107       1.77291775
H        4.53493814       4.79359120       3.99076915       0.10566910      -1.76945412      -0.78791851
H        4.52124362       6.48288362       5.44321059      -0.27338549      -0.18857867       9.79076672
H        3.69383306       6.92788521       4.25663384       0.00176823       0.01787484       0.26378232
O        2.21723482       7.77992278       0.94334946      -1.12871671       1.66680813      -0.08439505
O        2.15386446       2.55408856       0.06911607       2.73341179       1.29885733      -4.31116486
O        2.23285569       7.72201574       3.62118511      -1.81798470      -0.68660498       2.35186720
O        2.26898525       2.60258121       4.57176187       5.33031225      -3.97543979       2.81557727
O        6.67585876       0.00414028       0.97323370       2.75533772      -1.84755969      -1.25480092
O        6.73492124       2.54413301       0.01502641       2.77616930       2.36631870      -1.25086522
O        6.75219498       0.01864962       3.72973914      -1.99386978      -0.96586752      -2.82412529
O        6.73283519       2.57118803       4.64570431      -1.89092922       2.59144545      -0.81438732
O        8.95000430       3.95609094       0.97073546       1.92543650      -2.01016760      -4.46643305
O        0.02884343       6.44350199       7.32305386      -0.93043673       2.60413861      -1.49430358
O        0.02274605       3.94187017       3.74074749      -1.21337414      -1.38952661       0.07878542
O        0.04584164       6.46316593       4.55697530      -0.27242923       0.52616620       0.16431272
O        4.51608237       3.84363490       0.92014300      -3.26620841       2.20266724       0.34976339
O        4.40511274       6.52748610       7.31117556       1.77209973      -1.89639020       1.40653050
O        4.52835072       3.82657575       3.62114955       3.98102212       4.24281597      -0.77821219
O        4.52338832       6.52165746       4.60028231      -0.12273240       0.06457824     -10.36432266
48
Lattice="8.9846 0.0 0.0 0.0 7.7808 0.0 0.0 0.0 7.3358" Properties=species:S:1:pos:R:3:forces:R:3 starting-structure=0 energy=-237.0284423828125 id=4de02e40-0091-47dd-945e-1b09337343a0 level=1 parent=39a8fc1b-9403-4653-967f-8eeb8eeaec47 relax_steps=7 sigma=0.08927180304353628 pbc="T T T"
H        3.03709662       7.41071976       0.56032941       0.17850816      -0.17262906      -0.17258361
H        2.23507884       0.97734135       0.58613043      -0.03289907       0.08613038      -0.22800523
H        2.97368590       3.04526448       0.21615086      -0.04436851      -0.03955597      -0.11122751
H        2.21595456       2.58104362       6.26472423       0.06222880      -0.00280884      -0.33879948
H        2.15175062       7.74425643       2.70185351       0.03458958       0.04249606      -0.36202478
H        1.40775065       7.24354906       3.98560679      -0.35163450      -0.21534234       0.09256566
H        1.62811254       3.08915254       4.23410396      -0.55471116       0.09733003      -0.09169537
H        2.19999748       1.64634878       4.30690608       0.27732143       0.30185616      -0.06822622
H        7.35879640       7.31787466       0.56979513      -0.30829382       0.11419898       0.34044504
H        6.68609707       0.92096358       0.72651844      -0.04829249      -0.31525421      -0.01339710
H        6.81334253       2.52766331       6.42071364      -0.01398470       0.03312257      -0.70503056
H        7.58050709       3.16937656       0.27148435      -0.00113606      -0.55130696       0.15027142
H        6.69045566      -0.01759874       2.79998199       0.08262026      -0.13264062      -0.30090451
H        5.87792762       7.31686767       4.04745066       0.50767934       0.20932001      -0.03793448
H        5.88671647       2.99938362       4.17476152       0.47087240       0.10116464       0.09456933
H        6.82074205       1.73969094       4.23626367      -0.18580936      -0.40213656      -0.01482803
H        0.07572312       3.87483557       1.93559041       0.06076111      -0.07382558       0.17878330
H        0.89948052       3.38526010       0.65545763      -0.46955967       0.17414618       0.04426676
H        0.79234548       6.90943486       0.41478799       0.03584170      -0.20151567      -0.34805346
H        9.08205050       5.48251245       0.36047521       0.11928558       0.29574668      -0.17953843
H        8.16400688       3.45853485       4.05999779       0.55247080       0.32147712      -0.28990877
H        0.03971144       4.78429087       4.07092000      -0.10412748       0.23353469      -0.01146859
H        0.18727077       6.36416752       5.61590532      -0.24234125       0.10038589      -0.40835226
H        8.26817006       6.86469067       4.43144671      -0.68534994       0.33006859      -0.24204479
H        4.46896159       3.93326326       1.82778133       0.12366207       0.03163939      -0.49018586
H        5.22293906       3.42228751       0.55563244       0.44124484      -0.16347307      -0.02737659
H        5.19684783       6.97349432       0.38187981       0.27288699       0.15113121      -0.00702453
H        4.45838790       5.60228202       0.26266699      -0.05453507       0.24311614      -0.01183748
H        3.83357213       3.47593598       3.92655629      -0.70556808      -0.35638982       0.29466420
H        4.58917105       4.84335430       3.97560060      -0.07697645      -0.28717983      -0.31596601
H        4.47846335       6.48460094       5.53788579       0.03106398       0.15997823       0.59325433
H        3.67785423       6.94624145       4.28348805       0.22934175      -0.05036718      -0.02880353
O        2.23077772       7.83475687       0.89714119      -0.31874204      -0.06425577       0.48747325
O        2.18232264       2.56147589      -0.09641756       0.27150309       0.23614901       0.70591319
O        2.18056246       7.74493020       3.67130876       0.47751510       0.26333368       0.29501486
O        2.36748255       2.57782525       4.59142895       0.13178623      -0.45576286      -0.14049137
O        6.58734671      -0.02590478       0.99402998       0.77806211       0.22269058      -0.44881654
O        6.87206503       2.52438685       0.04382322      -0.11240673       0.51611841       0.56346691
O        6.73220619      -0.03993136       3.76652936      -0.24456418      -0.01563263       0.36278081
O        6.72490311       2.64951954       4.55789507      -0.15082896       0.11885488       0.06272066
O        9.08457189       3.88579557       0.95976070       0.14917326      -0.04287481      -0.21168482
O        0.11449883       6.37965068       7.27656161      -0.26850283       0.02987486       0.49542856
O        0.01251505       3.87858025       3.71041529      -0.29301202      -0.62111491       0.12686443
O        0.09460275       6.38853933       4.62100334       0.67127526      -0.25327283       0.72603118
O        4.45316570       3.93207639       0.83512873      -0.39537323       0.03526866       0.49789631
O        4.43548269       6.53765245       7.29441862      -0.25685096      -0.50584650      -0.00938272
O        4.57782216       3.94990075       3.54972347       0.48609018       0.59733713       0.03624642
O        4.52054782       6.52338389       4.57107517      -0.52591836      -0.12328607      -0.53306389
48
Lattice="8.9846 0.0 0.0 0.0 7.7808 0.0 0.0 0.0 7.3358" Properties=species:S:1:pos:R:3:forces:R:3 starting-structure=0 energy=-236.45199584960938 id=8dcf6182-8c64-4c71-8cf2-0b30977e9a74 level=1 parent=39a8fc1b-9403-4653-967f-8eeb8eeaec47 relax_steps=3 sigma=0.07916882303273484 pbc="T T T"
H        2.94620125       7.24887863       0.76960965       0.84006453      -0.73494112      -0.47581023
H        2.33307625       0.87464422       0.57824655      -0.28388456      -0.52005279       0.41449320
H        2.97659095       2.98349540       0.31060551       1.12634027       0.66773099       0.44487718
H        2.26629856       2.62367411       6.34914459       0.08138789      -0.15428886      -0.74974024
H        2.27441667       7.82965109       2.68312993      -0.17132452      -0.26157245      -0.11744595
H        1.36030177       7.25706058       3.88326674       1.23105991       0.57169598      -0.39413822
H        1.56581439       2.99481456       4.22871738      -0.71200407       0.13441920      -0.16918707
H        2.30787488       1.60826672       4.34875511      -0.06829002       0.06892788      -0.25628120
H        7.44346542       7.40719105       0.60440527      -0.20937824      -0.32692608      -0.06622666
H        6.54530212       0.83951604       0.62428285      -0.09934387       1.47984636      -0.54906183
H        6.74654872       2.68000478       6.26195008       0.00682859       0.03109270       0.67957997
H        7.50794690       3.08386931       0.24579720       1.05030692       0.69325602       0.44595307
H        6.70781671       0.05730585       2.75857846      -0.16536836      -0.25262150       0.18134201
H        5.83318745       7.35287170       3.98361224      -0.13802361      -0.12573314       0.00683096
H        5.83895961       3.04068597       4.21574313       0.57433486      -0.08230841       0.22418058
H        6.67780252       1.69760447       4.34384001       0.03110747       0.41264367      -0.02388880
H        0.13427506       3.99968469       1.87170173      -0.56401151      -0.18537298      -0.65841973
H        0.70008661       3.40113187       0.59273440       0.38014770      -0.20885324      -0.39035746
H        0.75418864       7.09883284       0.36241763       0.18800688      -0.62274837       0.10158730
H        9.05357746       5.63460523       0.38355677       0.22253901       0.13858962       0.01535505
H        8.19626928       3.51620983       3.97905432      -0.90996552      -0.39840680       0.41656092
H        0.01340292       4.89345644       4.01676374      -0.00109597      -1.33903027      -0.18294656
H        0.25466531       6.33383865       5.46007554      -1.24486530       1.00079942      -1.48066330
H        8.04777413       6.85954499       4.38295989       0.92642999       0.12816015       0.27036458
H        4.57876444       3.80434962       1.85800497      -0.03609893       0.24601957      -0.35163569
H        5.28835256       3.36052308       0.55728745       1.06271458      -0.51082623      -0.49502030
H        5.20918745       6.87350862       0.40803847      -0.85947847      -0.42719513      -0.73789895
H        4.53970987       5.49262567       0.27885846      -0.20388710      -0.85581851       0.26485497
H        3.72419914       3.46067950       3.93430409       0.82216883       0.30016965      -0.22906220
H        4.54683736       4.77976892       3.98741263      -0.00067419       1.50590360       0.37718463
H        4.46345865       6.44495372       5.48821055      -0.01089399       0.12179548       1.11703968
H        3.67202430       6.97455350       4.26664540      -0.55693388       0.17801869      -0.24334747
O        2.20149033       7.77994161       1.04199753      -0.43437040       1.43884313      -0.39221740
O        2.25536444       2.47208679      -0.03647902      -1.06310523      -0.40877867       0.35501814
O        2.26954356       7.65126090       3.64494279      -1.13283801      -0.00720942       0.87527168
O        2.35687775       2.56107492       4.56561827       0.65663719      -0.20492017       0.25603223
O        6.57026167      -0.06034559       0.91509015       0.67139196      -0.93376148       0.49229050
O        6.72804527       2.65530214      -0.07318631      -1.16857040      -0.98455036      -1.02814031
O        6.68108021      -0.00191633       3.73239830       0.40280807       0.26491272      -0.04476428
O        6.67893751       2.65410164       4.58914875      -0.34347939      -0.43020797      -0.32593989
O        8.94437518       3.94208281       0.89461463       0.41397417       0.18783355       1.33956468
O        0.06978096       6.51848081       7.30456751      -0.50188476       0.35629171      -0.29286075
O        0.06959428       3.90000755       3.81675664       1.02245581       1.80104053      -0.45055431
O        0.01299488       6.56210574       4.49054394       0.08785594      -0.97267681       1.39966846
O        4.53447792       3.85127293       0.87609436      -1.12729204       0.27645117       0.86001134
O        4.42084170       6.40195451       7.32968142       0.83507681       1.29660583       0.36872566
O        4.56238853       3.91042275       3.61375545      -1.07199836      -1.86967802      -0.13586271
O        4.50626989       6.56069217       4.54095305       0.44542611      -0.48256871      -0.66531599
48
Lattice="8.9846 0.0 0.0 0.0 7.7808 0.0 0.0 0.0 7.3358" Properties=species:S:1:pos:R:3:forces:R:3 starting-structure=0 energy=-231.33499145507812 id=0abedae7-9ca5-4a5d-999d-2706d60c538d level=2 parent=4de02e40-0091-47dd-945e-1b09337343a0 relax_steps=0 sigma=0.06626089606472355 pbc="T T T"
H        3.01749256       7.34188413       0.53673932      -2.46205497       1.44606388       1.20424700
H        2.25835721       1.02351821       0.53087611      -0.56455791      -1.21584773       0.43462133
H        3.02958486       3.13110838       0.24939460      -2.54092503      -1.67754555      -1.46979070
H        2.33859082       2.52578978       6.18810147      -0.24990320       0.23489633       0.63646770
H        2.03216912       7.83940379       2.75106155       0.30278605       0.51288855      -3.12826681
H        1.40234565       7.25811816       3.91688005       0.66616011       0.11442119       0.66317868
H        1.78844835       3.09373297       4.24720173      -3.79611135       2.34759617      -1.37816477
H        2.24636552       1.67423900       4.32759001      -1.18881297      -4.93873882      -1.53340149
H        7.30469695       7.34513270       0.70034894       0.28677154      -0.50670767      -0.32508153
H        6.77352390       1.02254767       0.69849401      -0.93712908      -1.86299503       0.18803325
H        6.74604853       2.51534668       6.43025520       1.20544052      -0.61250937       3.06164718
H        7.65128730       3.05325046       0.37868290       0.61088502       0.03397298       0.09242237
H        6.67826401      -0.04986614       2.73876822       0.04376908      -0.05198668       1.01744485
H        5.76655343       7.36742981       4.05815795       2.78149366       0.86393809      -0.57214624
H        5.79952060       2.90958866       4.15836130       3.45659971      -0.16832195       1.73831820
H        6.92961101       1.71850831       4.14251325      -0.58667463       1.71428883       1.73096442
H        0.05771806       3.85278279       1.76274147      -0.98516601      -0.32624030      12.32790375
H        0.89416099       3.36597630       0.70743807      -0.28195453       0.14427686      -0.73932016
H        0.91313706       6.98010019       0.40282037      -2.32614779      -1.41648865      -2.17971659
H        9.00700920       5.64904370       0.37024826      -0.19073407      -2.37606359       1.04074931
H        8.16320795       3.45295443       4.07897224      -1.13212931      -0.04021168       0.72598004
H        0.02842409       4.74229763       4.04053381       0.05969489       5.21869278       2.21316051
H        0.18337860       6.32417783       5.57452070       0.38507491      -0.18861228       2.67055607
H        8.27350032       6.84381378       4.53695181      -2.44850588       1.33306313      -0.78661907
H        4.29158406       4.00160560       1.91619723       1.55318117      -0.91140455      -2.76550388
H        5.08383246       3.39559885       0.53686961       4.68953037      -3.18727016      -0.87173831
H        5.10186294       6.91797362       0.31414124       2.11212826       2.73510599       0.40050590
H        4.57277301       5.66029903       0.35277055      -1.74045634       1.06949675      -1.87272644
H        3.87966887       3.39714212       3.89765028       0.82200515       0.92011201      -0.25397554
H        4.61987554       4.75839314       4.02869370      -0.04182348       3.71793199       1.92241919
H        4.46081727       6.45578310       5.59084381       0.49126840       0.31784797       0.60825062
H        3.70556961       6.91834163       4.36615546      -0.29392302       0.46367151      -0.63783646
O        2.15742359       7.87158743       0.94228979       2.67758465      -0.50729978      -2.01122332
O        2.16008991       2.57910388      -0.17346829       3.34542894       1.53699887       1.38371372
O        2.24006742       7.72869654       3.64252184      -0.95922005      -0.83302963       2.91542578
O        2.43526893       2.52717293       4.50395222       4.86699295       2.67674589       2.40491700
O        6.48248116       0.01026810       0.91503676       0.90453863       1.86089730       0.08884031
O        6.98661736       2.38245446       0.16208112      -1.84505379       0.82558346      -3.81436110
O        6.74446650      -0.05032154       3.73627171      -2.41367126      -0.37638485      -0.43653905
O        6.74962832       2.64304396       4.63685002      -2.82409668      -2.03026962      -2.74350309
O        9.09041881       3.89177282       0.94151661       0.92521334       0.23850632     -11.42443371
O        0.10900366       6.39606402       7.16909350       2.70301056       4.30266047       1.64101470
O       -0.07853883       3.92384772       3.72758617       1.44489026      -5.28618288      -3.09376907
O        0.08068995       6.38577891       4.64988360       2.08549643      -0.72813332      -2.48175859
O        4.41567883       3.87652334       0.85395479      -5.85026884       4.09132004       3.92710280
O        4.36893293       6.56072177       7.18745308      -0.72001517      -3.92134762       1.94143903
O        4.64429303       3.97723361       3.57253741      -1.54775023      -4.80518866      -1.88031602
O        4.58393990       6.62975784       4.64413742      -0.49285889      -0.75219601      -0.57913226
48
Lattice="8.9846 0.0 0.0 0.0 7.7808 0.0 0.0 0.0 7.3358" Properties=species:S:1:pos:R:3:forces:R:3 starting-structure=0 energy=-236.52224731445312 id=9445e8a1-7866-4697-b23e-167e41b76e58 level=3 parent=0abedae7-9ca5-4a5d-999d-2706d60c538d relax_steps=8 sigma=0.07172921762071523 pbc="T T T"
H        2.96295117       7.37455514       0.62456608      -0.14553130       0.22817230       0.16340256
H        2.27445358       0.99666775       0.59912948      -0.13930093      -0.23945415       0.09965169
H        2.96354216       3.16917401       0.11237196       0.08670151      -0.09309804       0.11690262
H        2.28272770       2.55281627       6.16524125       0.04720481       0.03346835       0.36760545
H        2.14289936       7.83202322       2.79998826       0.17099638      -0.11298138       0.20753765
H        1.40415596       7.32310573       4.08146843      -0.40251958      -0.28783703       0.13553283
H        1.73009448       3.03090333       4.19875121      -0.48420620       0.02798247      -0.14417985
H        2.29176999       1.55564079       4.17720291       0.15835828       0.14923871       0.14962611
H        7.25282165       7.35798295       0.78408757       0.19089985      -0.18183470      -0.24815592
H        6.72471441       1.01456192       0.75459940      -0.23841581      -0.23018169       0.01741496
H        6.78479548       2.39314507       6.52935225       0.21339977      -0.06606581      -0.19145858
H        7.61909666       3.04897659       0.33967151       0.36309296      -0.15990222       0.13817368
H        6.62258514      -0.10053338       2.72618336       0.07499810       0.12190463       0.30749309
H        5.86135333       7.32844829       4.03746264       0.32184839      -0.00929987       0.07296944
H        5.96034576       2.87958546       4.18165348       0.33250690       0.09607029       0.18260491
H        6.99830490       1.71790863       4.20908765      -0.37613359      -0.42405319       0.11244363
H        0.00127090       3.85804825       1.82689418       0.10033239       0.12460437      -0.09670544
H        0.81547620       3.42228311       0.53281503      -0.36948860       0.23555541       0.08110392
H        0.82976906       6.96455052       0.31533848      -0.27997029      -0.10099089      -0.19030744
H        9.03860653       5.59734142       0.25651107       0.10279918       0.09784102       0.00744081
H        8.16152841       3.50281322       4.20560259       0.06188130       0.28759247      -0.15388477
H        0.05748840       4.84591465       4.07870346      -0.30842716      -0.21701181      -0.02470726
H        0.15141571       6.37194108       5.57687828      -0.08668941       0.22398555       0.10229099
H        8.25771105       6.78993840       4.35018929      -0.33447838       0.24252117      -0.17708686
H        4.33149634       3.91686708       1.87893241       0.26198837      -0.05638586       0.06476021
H        5.10679190       3.38869923       0.62257859      -0.21995294       0.23581660       0.30782843
H        5.15839250       7.02344119       0.31510655       0.26532125       0.15103000       0.17397493
H        4.43177146       5.62961107       0.33484885       0.05171519       0.08399844      -0.14195764
H        3.81702220       3.35658020       3.91417551       0.12438357       0.14273375      -0.06483549
H        4.57937628       4.74030778       3.98631610      -0.05639677      -0.08042490      -0.27981788
H        4.62518930       6.45146112       5.58353573      -0.23967613       0.29955658      -0.00877762
H        3.72510831       7.01294959       4.43489063      -0.23366618       0.12685895      -0.17467770
O        2.21631709       7.88418252       1.01142671       0.29410827       0.01710641      -0.36607695
O        2.21619197       2.61708057      -0.18494959      -0.17692411      -0.05302745      -0.19605041
O        2.19790503       7.80292463       3.78173184       0.37680554       0.23831385      -0.60242200
O        2.47883190       2.48987111       4.47998013      -0.07158995       0.11242762       0.00554705
O        6.47301407       0.08714121       1.02861515       0.27427149      -0.44787341       0.11472768
O        6.97094284       2.34467433       0.14572616      -0.63180149       0.98415864      -0.41675019
O        6.73058089      -0.12220760       3.70294817       0.27059078       0.14022839      -0.29617941
O        6.76443002       2.55472858       4.63970061      -0.15495741       0.10786217      -0.01726782
O        9.01773727       3.94136449       0.85054315       0.26682115      -0.32778215       0.25853920
O        0.08439003       6.49821262       7.20929968       0.00819039       0.05109596       0.49592781
O       -0.06479776       3.92470190       3.75360727       0.62423015      -0.35284841      -0.28095937
O        0.12859061       6.40008186       4.59085320       0.10311341       0.01828831       0.07429338
O        4.32876550       3.90983137       0.89505770       0.40253627      -0.13098067      -0.43547243
O        4.42695341       6.51557827       7.25456039      -0.35728216      -0.33029372       0.19835472
O        4.57074698       3.87181773       3.53565020      -0.16612220       0.01927006       0.42868829
O        4.57732780       6.58940679       4.61201125      -0.07556295      -0.69535488       0.12289166
48
Lattice="8.9846 0.0 0.0 0.0 7.7808 0.0 0.0 0.0 7.3358" Properties=species:S:1:pos:R:3:forces:R:3 starting-structure=0 energy=-228.58363342285156 id=dbe1a587-3aea-4de0-9d8a-88107cab7136 level=2 parent=4de02e40-0091-47dd-945e-1b09337343a0 relax_steps=0 sigma=0.07437278321787935 pbc="T T T"
H        3.10643484       7.44952392       0.63316235       0.65189660      -0.08077204      -0.61152667
H        2.12399672       1.06039270       0.62755435       0.97022343      -2.47479653      -0.19739166
H        2.93672953       3.04884438       0.10604129      -1.34862697      -1.14364779       0.04285052
H        2.23685500       2.49740210       6.18611636      -0.45488033      -0.28813154       0.57099879
H        2.02903633       7.81992586       2.67704743       1.22227764      -0.34480092       2.88250303
H        1.51232605       7.19661572       3.88061981      -9.26240540      -7.01717186       2.95335078
H        1.53558131       3.17397899       4.24450337       2.98935866      -2.13313866       1.33703899
H        2.14972763       1.65116548       4.36621904       0.38298136      -0.55800867      -0.17418414
H        7.43240826       7.41851929       0.56503213      -0.86730444       0.11916429       0.74799019
H        6.57798301       0.88312873       0.76787022       0.08133189       3.10283971      -0.90047574
H        6.73217290       2.44939304       6.46827609      -0.62261784       0.01680031      -7.02018833
H        7.56739648       3.16473146       0.23706693       1.67405427       1.33619523      -0.16520315
H        6.66382792      -0.09342083       2.88818251      -0.05992791      -0.39697054      -8.47176361
H        5.94542980       7.17247724       4.00031434       2.17833996       2.05570269       0.27544737
H        5.76592322       2.94395523       4.19055000       2.47395563       0.35734090       0.94101989
H        6.70343570       1.66404537       4.18359055       0.59690124       3.14517403       1.45897985
H        0.08164597       3.87290861       1.90390677      -0.08982684       0.81299126      -0.85784960
H        0.90313898       3.33751769       0.65724788      -1.94029725       2.10406375       0.02717108
H        0.90731257       7.00204439       0.34012851      -2.80380774      -2.21999669      -0.92241693
H        9.13426781       5.53577397       0.29706966       0.47869089      -3.11441112       1.37548530
H        8.21540946       3.56583084       3.99850500      -1.91435063      -1.55151534       0.59935117
H       -0.03801800       4.85289289       4.11310585       0.53062272       0.06507790      -0.40608221
H        0.21879339       6.38241380       5.66695645       0.11274591       0.15072817       4.81100178
H        8.16002444       6.93549831       4.54042636       3.75717306      -2.26956224       0.62295473
H        4.44240897       3.92294546       1.73590260       0.44907463      -0.42083126       1.93324995
H        5.25169342       3.45774872       0.57300110      10.87412834      -6.65804911      -3.34081459
H        5.27097692       6.94156378       0.44586511      -0.77161419      -0.88327277      -0.56775177
H        4.37306043       5.59344608       0.27169377       0.49902025      -0.33127511       0.17207736
H        3.84083671       3.44136894       3.93877229      -4.23391151      -1.90637541       2.12784576